LAMMPS Description

     8  atoms
     7  bonds
     8  angles
     0  dihedrals
     0  impropers

     2  atom types
     1  bond types
     1  angle types
     0  dihedral types
     0  improper types

  0 90.0 xlo xhi
  0 90.0 ylo yhi
  0 90.0 zlo zhi

Masses

1 55.565  # CH
2 55.565  # AC

Atoms  # full

1 1 1 0 11.01395 -8.82085 -8.85037
2 1 1 0 10.17672 -7.85191 -3.70641
3 1 1 0 5.718093 -4.93276 -3.62592
4 1 2 0 3.806608 -9.51609 -3.01874
5 1 2 0 1.48578 -6.61746 -7.5945
6 1 2 0 0.839701 -3.04226 -4.10535
7 1 2 0 -2.72788 -1.0913 -1.5144
8 1 2 0 -3.59942 3.63014 -3.15759

Bonds

1 1 7 8
2 1 6 7
3 1 5 6
4 1 3 6
5 1 3 4
6 1 2 3
7 1 1 2

Angles

1 1 6 7 8
2 1 3 6 7
3 1 5 6 7
4 1 3 6 5
5 1 4 3 6
6 1 2 3 6
7 1 2 3 4
8 1 1 2 3

