LAMMPS Description

     6  atoms
     5  bonds
     5  angles
     0  dihedrals
     0  impropers

     2  atom types
     1  bond types
     1  angle types
     0  dihedral types
     0  improper types

  0 90.0 xlo xhi
  0 90.0 ylo yhi
  0 90.0 zlo zhi

Masses

1 55.565  # CH
2 55.565  # AC

Atoms  # full

1 1 1 0 5.22229 1.29511 0.191525
2 1 1 0 -0.1454 2.50238 -0.360909
3 1 1 0 -5.0291 1.76321 0.128712
4 1 2 0 7.2841 -1.0429 -3.679005
5 1 2 0 1.41336 6.64936 0.586875
6 1 2 0 -3.7275 4.33795 3.960407

Bonds

1 1 3 6
2 1 2 3
3 1 2 5
4 1 1 2
5 1 1 4

Angles

1 1 1 2 3
2 1 2 3 6
3 1 2 1 4
4 1 3 2 5
5 1 1 2 5

